Protein in water
25072
    1LYS      N    1   7.320   2.103   1.523
    1LYS     CB    2   7.556   2.059   1.541
    1LYS     CG    3   7.680   2.065   1.630
    1LYS     CD    4   7.781   1.961   1.584
    1LYS     CE    5   7.905   1.971   1.673
    1LYS     NZ    6   7.982   1.846   1.664
    1LYS      C    7   7.448   2.267   1.650
    1LYS      O    8   7.392   2.345   1.572
   7.92000   7.92000   3.78000